# vtk DataFile Version 2.0
f9f9ffbd-548e-4aa0-bcf8-f1846c070917, Created by Gmsh 4.13.1
ASCII
DATASET UNSTRUCTURED_GRID
POINTS 146 double
0 0 0
0.5 0.5 0
0 1 0
1 1 0
1 0 0
0.5 0.7 0
0.7 0.7 0
0.7 0.5 0
0 0.09999999999981467 0
0 0.1999999999995579 0
0 0.2999999999992664 0
0 0.3999999999989749 0
0 0.4999999999986943 0
0 0.5999999999989468 0
0 0.69999999999921 0
0 0.7999999999994734 0
0 0.8999999999997368 0
0.09999999999981467 1 0
0.1999999999995579 1 0
0.2999999999992664 1 0
0.3999999999989749 1 0
0.4999999999986943 1 0
0.5999999999989468 1 0
0.69999999999921 1 0
0.7999999999994734 1 0
0.8999999999997368 1 0
1 0.8999999999995836 0
1 0.7999999999999998 0
1 0.7000000000006934 0
1 0.6000000000013869 0
1 0.5000000000020587 0
1 0.4000000000016644 0
1 0.3000000000012483 0
1 0.2000000000008322 0
1 0.100000000000416 0
0.8999999999995836 0 0
0.7999999999999998 0 0
0.7000000000006934 0 0
0.6000000000013869 0 0
0.5000000000020587 0 0
0.4000000000016644 0 0
0.3000000000012483 0 0
0.2000000000008322 0 0
0.100000000000416 0 0
0.5 0.5999999999998263 0
0.5999999999998263 0.7 0
0.7 0.6000000000001736 0
0.6000000000001736 0.5 0
0.09516643956366548 0.339017777202286 0
0.3500000000014563 0.08660254037879478 0
0.6500000000010402 0.08660254037784325 0
0.08660254037843171 0.5499999999988205 0
0.08660254037867185 0.7499999999993416 0
0.5500000000001128 0.4133974596216808 0
0.4500000000001546 0.4089316397477072 0
0.4153982294332174 0.64999999999991 0
0.9181505525180236 0.2459833490147686 0
0.5000000000002689 0.3260506159308846 0
0.6000000000002579 0.3266708686912775 0
0.4000000000002726 0.3259265653787048 0
0.3500000000001777 0.4080426107912368 0
0.3390177772023578 0.9048335604363696 0
0.3000000000002681 0.3257577187938623 0
0.9175718721726061 0.7518886057896138 0
0.9183492439873475 0.5501723057955188 0
0.150328577708113 0.08101690754335797 0
0.6538675134593184 0.7843696304414661 0
0.252095873076579 0.4111220651899515 0
0.3148989815445011 0.5041388995880127 0
0.5500000000004125 0.2401923788648329 0
0.7499999999998263 0.7866025403784438 0
0.6500000000004121 0.2401923788650131 0
0.6991786930172397 0.3263000623437687 0
0.8430574538662745 0.09595102731168972 0
0.1531570840821588 0.9113733859656967 0
0.4125208683719515 0.7479041269234529 0
0.3278057338374918 0.7013466436635505 0
0.4964108276187437 0.8240487986224178 0
0.8477811956571349 0.9066327389342452 0
0.7781221711077293 0.6380604306808885 0
0.7574903409962973 0.2406527092489663 0
0.7998917307153903 0.3369475494122378 0
0.3500000000003585 0.240192378864568 0
0.2500000000003586 0.2401923788644615 0
0.7007803294073633 0.8632378117973396 0
0.6008662444205628 0.8571858495915422 0
0.1877108051033457 0.5011429496378605 0
0.2483121095419929 0.5746428503573723 0
0.3267949192430654 0.7999999999997341 0
0.2434356233392885 0.753213174370621 0
0.2423014421593586 0.8501477661965557 0
0.4500000000018615 0.0866025403783237 0
0.2500199573446812 0.08507187498103488 0
0.0856562228717635 0.6499999999991481 0
0.9039248997191521 0.3467301506479031 0
0.834086150583673 0.4203655297836624 0
0.77642166730462 0.5526705900909046 0
0.4115161248484728 0.5545573300574455 0
0.4500000000004128 0.2401923788646561 0
0.2000000000002664 0.3267949192428531 0
0.1500000000003583 0.2401923788643559 0
0.08660254037843008 0.4499999999989705 0
0.6490418085199663 0.4128201265720701 0
0.445763074837112 0.9149187002261523 0
0.5500000000014508 0.08660254037832073 0
0.7445056613849437 0.08380648141047892 0
0.920494782129863 0.6530806543921661 0
0.9204008321724615 0.1525328925686371 0
0.9218175846489112 0.8475214490839851 0
0.07940619877068289 0.8480280508678364 0
0.743767702592641 0.4120616769728456 0
0.08586317280830275 0.1541765796268999 0
0.842991801016889 0.1938243707475739 0
0.6959954194709016 0.1619232384458722 0
0.1632196828242425 0.7035242628215947 0
0.6000000000016124 0.1633974596212237 0
0.5000000000010338 0.163397459621566 0
0.3000000000011083 0.163397459621324 0
0.197701951310487 0.1606745965835724 0
0.4000000000010385 0.1633974596215388 0
0.1613537619257338 0.802714440036941 0
0.9198677347237108 0.4522969407588355 0
0.3297620037784654 0.6062640626462515 0
0.1663491940845877 0.6056241030207289 0
0.8433196974257734 0.8100981502536166 0
0.4041014934546461 0.8383410372416255 0
0.1643151316244573 0.4056155422543843 0
0.5443179323111094 0.9224342955517145 0
0.06698729810800956 0.2499999999994121 0
0.2499999999994122 0.9330127018919979 0
0.747376913419887 0.9263322739465828 0
0.8333354137744743 0.7136254184566798 0
0.2443293064232619 0.6604348646463163 0
0.6488902365928464 0.9281983718145297 0
0.8499999999995754 0.6000000000000869 0
0.8490946753667229 0.5037306521500106 0
0.9267949192429458 0.9267949192429046 0
0.9267949192431241 0.07320508075687601 0
0.5710792495731426 0.7731449200241772 0
0.4026954190197809 0.4741892722262556 0
0.07320508075664824 0.9267949192432314 0
0.07269592645542398 0.07269592645525981 0
0.7806740391695315 0.4777656897994846 0
0.7747136085961326 0.1564567137863415 0
0.7816957063368617 0.8551226701678427 0
0.8447347159285929 0.2716268839595776 0

CELLS 292 1120
2 0 8
2 8 9
2 9 10
2 10 11
2 11 12
2 12 13
2 13 14
2 14 15
2 15 16
2 16 2
2 2 17
2 17 18
2 18 19
2 19 20
2 20 21
2 21 22
2 22 23
2 23 24
2 24 25
2 25 3
2 3 26
2 26 27
2 27 28
2 28 29
2 29 30
2 30 31
2 31 32
2 32 33
2 33 34
2 34 4
2 4 35
2 35 36
2 36 37
2 37 38
2 38 39
2 39 40
2 40 41
2 41 42
2 42 43
2 43 0
2 1 44
2 44 5
2 5 45
2 45 6
2 6 46
2 46 7
2 7 47
2 47 1
3 6 70 131
3 79 6 131
3 51 86 101
3 48 99 100
3 61 88 90
3 77 103 127
3 85 77 127
3 111 100 118
3 48 100 128
3 61 90 129
3 97 68 122
3 86 51 123
3 94 81 95
3 103 77 125
3 101 86 126
3 68 97 139
3 77 85 138
3 76 122 132
3 74 90 120
3 65 111 118
3 122 87 132
3 127 22 133
3 23 130 133
3 131 106 134
3 107 73 112
3 109 74 120
3 99 48 126
3 88 61 125
3 85 127 133
3 130 84 133
3 100 111 128
3 81 94 145
3 78 108 124
3 79 131 134
3 112 73 143
3 90 74 129
3 95 81 110
3 49 41 92
3 32 56 94
3 39 40 91
3 42 65 92
3 31 32 94
3 40 41 49
3 51 13 93
3 42 43 65
3 32 33 56
3 40 49 91
3 12 13 51
3 1 47 53
3 5 44 55
3 6 45 66
3 7 46 96
3 14 52 93
3 24 25 78
3 14 15 52
3 41 42 92
3 13 14 93
3 38 39 104
3 11 12 101
3 82 59 98
3 44 1 97
3 59 57 98
3 12 51 101
3 99 83 100
3 62 83 99
3 80 72 81
3 68 86 87
3 68 67 86
3 60 67 68
3 67 62 99
3 62 82 83
3 71 58 72
3 71 72 80
3 62 59 82
3 60 62 67
3 60 59 62
3 69 58 71
3 57 69 98
3 88 89 90
3 88 76 89
3 54 59 60
3 57 58 69
3 57 53 58
3 54 57 59
3 84 66 85
3 75 76 88
3 46 79 96
3 55 44 97
3 53 47 102
3 1 53 54
3 5 55 75
3 5 75 77
3 6 66 70
3 70 66 84
3 54 53 57
3 75 55 76
3 39 91 104
3 48 11 101
3 46 6 79
3 47 7 102
3 58 53 102
3 17 18 74
3 20 21 103
3 10 11 48
3 19 20 61
3 72 58 102
3 35 36 73
3 50 38 104
3 61 20 103
3 29 30 64
3 37 38 50
3 27 28 63
3 28 29 106
3 36 37 105
3 73 36 105
3 29 64 106
3 63 28 106
3 37 50 105
3 68 87 122
3 87 86 123
3 78 124 144
3 94 95 121
3 33 34 107
3 15 16 109
3 26 27 108
3 81 72 110
3 102 7 110
3 70 124 131
3 31 94 121
3 64 30 121
3 76 55 122
3 56 33 107
3 52 15 109
3 27 63 108
3 72 102 110
3 86 67 126
3 77 75 125
3 8 9 111
3 123 114 132
3 21 22 127
3 23 24 130
3 74 18 129
3 10 48 128
3 19 61 129
3 63 106 131
3 3 26 136
3 4 35 137
3 25 3 136
3 45 5 138
3 97 1 139
3 60 68 139
3 5 77 138
3 1 54 139
3 2 17 140
3 16 2 140
3 34 4 137
3 85 66 138
3 43 0 141
3 0 8 141
3 94 56 145
3 73 105 143
3 114 52 120
3 116 91 119
3 98 116 119
3 91 49 119
3 69 71 115
3 69 115 116
3 98 69 116
3 71 80 113
3 83 117 118
3 93 52 114
3 49 92 117
3 83 82 117
3 105 50 113
3 100 83 118
3 117 92 118
3 92 65 118
3 115 104 116
3 50 104 115
3 82 98 119
3 104 91 116
3 113 50 115
3 71 113 115
3 49 117 119
3 117 82 119
3 89 114 120
3 90 89 120
3 48 101 126
3 61 103 125
3 93 114 123
3 56 107 112
3 111 9 128
3 30 31 121
3 51 93 123
3 55 97 122
3 87 123 132
3 52 109 120
3 89 76 132
3 80 81 145
3 75 88 125
3 67 99 126
3 64 121 135
3 108 63 124
3 103 21 127
3 9 10 128
3 18 19 129
3 24 78 130
3 112 80 145
3 70 84 144
3 22 23 133
3 84 85 133
3 96 79 134
3 106 64 134
3 107 34 137
3 109 16 140
3 26 108 136
3 110 7 142
3 7 96 142
3 65 43 141
3 78 25 136
3 54 60 139
3 66 45 138
3 17 74 140
3 35 73 137
3 96 134 135
3 134 64 135
3 121 95 135
3 73 107 137
3 74 109 140
3 108 78 136
3 80 112 143
3 124 63 131
3 114 89 132
3 113 80 143
3 111 65 141
3 8 111 141
3 95 110 142
3 130 78 144
3 84 130 144
3 56 112 145
3 105 113 143
3 124 70 144
3 135 95 142
3 96 135 142

CELL_TYPES 292
3
3
3
3
3
3
3
3
3
3
3
3
3
3
3
3
3
3
3
3
3
3
3
3
3
3
3
3
3
3
3
3
3
3
3
3
3
3
3
3
3
3
3
3
3
3
3
3
5
5
5
5
5
5
5
5
5
5
5
5
5
5
5
5
5
5
5
5
5
5
5
5
5
5
5
5
5
5
5
5
5
5
5
5
5
5
5
5
5
5
5
5
5
5
5
5
5
5
5
5
5
5
5
5
5
5
5
5
5
5
5
5
5
5
5
5
5
5
5
5
5
5
5
5
5
5
5
5
5
5
5
5
5
5
5
5
5
5
5
5
5
5
5
5
5
5
5
5
5
5
5
5
5
5
5
5
5
5
5
5
5
5
5
5
5
5
5
5
5
5
5
5
5
5
5
5
5
5
5
5
5
5
5
5
5
5
5
5
5
5
5
5
5
5
5
5
5
5
5
5
5
5
5
5
5
5
5
5
5
5
5
5
5
5
5
5
5
5
5
5
5
5
5
5
5
5
5
5
5
5
5
5
5
5
5
5
5
5
5
5
5
5
5
5
5
5
5
5
5
5
5
5
5
5
5
5
5
5
5
5
5
5
5
5
5
5
5
5
5
5
5
5
5
5
5
5
5
5
5
5
5
5
5
5
5
5
5
5
5
5
5
5

CELL_DATA 292
SCALARS CellEntityIds int 1
LOOKUP_TABLE default
1
1
1
1
1
1
1
1
1
1
1
1
1
1
1
1
1
1
1
1
1
1
1
1
1
1
1
1
1
1
1
1
1
1
1
1
1
1
1
1
1
1
1
1
1
1
1
1
2
2
2
2
2
2
2
2
2
2
2
2
2
2
2
2
2
2
2
2
2
2
2
2
2
2
2
2
2
2
2
2
2
2
2
2
2
2
2
2
2
2
2
2
2
2
2
2
2
2
2
2
2
2
2
2
2
2
2
2
2
2
2
2
2
2
2
2
2
2
2
2
2
2
2
2
2
2
2
2
2
2
2
2
2
2
2
2
2
2
2
2
2
2
2
2
2
2
2
2
2
2
2
2
2
2
2
2
2
2
2
2
2
2
2
2
2
2
2
2
2
2
2
2
2
2
2
2
2
2
2
2
2
2
2
2
2
2
2
2
2
2
2
2
2
2
2
2
2
2
2
2
2
2
2
2
2
2
2
2
2
2
2
2
2
2
2
2
2
2
2
2
2
2
2
2
2
2
2
2
2
2
2
2
2
2
2
2
2
2
2
2
2
2
2
2
2
2
2
2
2
2
2
2
2
2
2
2
2
2
2
2
2
2
2
2
2
2
2
2
2
2
2
2
2
2
2
2
2
2
2
2
2
2
2
2
2
2
2
2
2
2
2
2
